version 2
run Net9-0-20171206-10:44:11-5611
attr configname Net9
attr datetime 20171206-10:44:11
attr experiment Net9
attr inifile omnetpp.ini
attr iterationvars ""
attr iterationvars2 $repetition=0
attr measurement ""
attr network networks.Net9
attr processid 5611
attr repetition 0
attr replication #0
attr resultdir results
attr runnumber 0
attr seedset 0

vector 1  Net9.people[1].app  endToEndDelay:vector  ETV
attr interpolationmode  none
attr title  "end-to-end delay of arrived packets, vector"
attr unit  s
vector 2  Net9.people[2].app  endToEndDelay:vector  ETV
attr interpolationmode  none
attr title  "end-to-end delay of arrived packets, vector"
attr unit  s
vector 0  Net9.people[0].app  endToEndDelay:vector  ETV
attr interpolationmode  none
attr title  "end-to-end delay of arrived packets, vector"
attr unit  s
vector 3  Net9.grid[0].app  endToEndDelay:vector  ETV
attr interpolationmode  none
attr title  "end-to-end delay of arrived packets, vector"
attr unit  s
0	61	0.031521371843	0.009192
0	98	0.036967244426	0.009192
0	189	0.059631119358	0.009192
0	268	0.075771140106	0.009192
0	340	0.085613813662	0.009192
0	380	0.093805813662	0.01096705298
0	435	0.101997813662	0.015241344874
0	459	0.110189813662	0.018547774381
0	584	0.133458165494	0.009192
0	602	0.135433393235	0.009192
0	625	0.139816832875	0
0	650	0.146011657368	0.009192
0	690	0.154249603884	0.130218433437
0	786	0.175731139659	0.009192
0	811	0.18059063103	0.009192
0	922	0.205119714338	0.009192
0	1170	0.259762022238	0
0	1227	0.268294029516	0.009192
0	1325	0.28670685423	0.009192
0	1334	0.290935527832	0.009192
0	1384	0.299117265398	0
0	1397	0.300817098322	0.009192
0	1438	0.31344844443	0.009192
0	1481	0.318880088556	0.009192
0	1508	0.327072088556	0.01450989524
0	1511	0.328016630015	0.009192
0	1580	0.343898608386	0
0	1704	0.365922299119	0.009192
0	1897	0.407346608969	0
0	1956	0.417838488935	0
0	2106	0.449161603884	0.328684793135
0	2112	0.451233724903	0
0	2123	0.453185725063	0.009192
0	2206	0.475821225179	0.009192
0	2252	0.484013225179	0.016867170943
0	2397	0.513056820449	0.009192
0	2577	0.560849488379	0.009192
0	2633	0.572153043838	0.009192
0	2636	0.573777389519	0
0	2671	0.578620569073	0.009192
0	2747	0.595415297285	0
0	2761	0.601505743412	0
0	2830	0.613001603884	0.347497507311
0	2858	0.619478194725	0.009192
0	2885	0.625352025211	0.009192
0	2917	0.629485880569	0
0	2930	0.633544025211	0.009333367533
0	3000	0.645769603884	0.378462984792
0	3045	0.653961603884	0.016641222525
0	3048	0.654291141273	0.009192
0	3114	0.665687773376	0.009192
0	3137	0.668802052712	0
0	3140	0.669268930148	0
0	3199	0.678537603884	0.394448589298
0	3235	0.685753401745	0.009192
0	3238	0.686729603884	0.012799590301
0	3263	0.692111560182	0
0	3289	0.694921603884	0.012229051432
0	3307	0.703261375718	0
0	3361	0.713367575737	0.009192
0	3365	0.716112188624	0
0	3383	0.71914341458	0.009192
0	3591	0.771083300299	0
0	3631	0.776294088509	0
0	3657	0.783005981606	0.009192
0	3711	0.791427344634	0.009192
0	3738	0.797949938127	0.009192
0	3751	0.799991989203	0
0	3806	0.809609603884	0.47555540833
0	3962	0.844522244593	0.009192
0	4011	0.852714244593	0.013409640429
0	4095	0.867469664837	0.009192
0	4190	0.883157065682	0.009192
0	4236	0.890599212566	0.009192
0	4432	0.927874718647	0.009192
0	4482	0.936066718647	0.011853304114
0	4627	0.960201334485	0.009192
0	4710	0.973449603884	0.59715059585
0	4752	0.983356604529	0.009192
0	4860	1.006217603884	0.628869777494
0	4892	1.017268669616	0.009192
0	4973	1.030825854754	0.009192
0	4979	1.032128993866	0
0	4983	1.033034068567	0
0	5046	1.042925633082	0.009192
0	5224	1.071753603884	0.63647256877
0	5259	1.079945603884	0.016984024318
0	5278	1.083413210702	0
0	5481	1.129900312029	0.009192
0	5524	1.137289603884	0.693722654118
0	5540	1.145481603884	0.013861733009
0	5607	1.159320521071	0.009192
0	5662	1.167512521071	0.014792877442
0	5683	1.169566038746	0.009192
0	5717	1.177758038746	0.725986820467
0	5763	1.185950038746	0.015603010759
0	5795	1.194142038746	0.012397056693
0	5866	1.202825603884	0.741974745332
0	5902	1.210595635373	0.009192
0	5913	1.212649240866	0.009192
0	5947	1.215781854452	0
0	5984	1.223793823183	0.009192
0	6018	1.231985823183	0.012630603304
0	6065	1.240177823183	0.01622177287
0	6090	1.248293295733	0
0	6093	1.248369823183	0.780586966936
0	6177	1.270189762878	0
0	6465	1.330620333877	0.009192
0	6497	1.338354948228	0
0	6580	1.351638077778	0.009192
0	6765	1.393802659925	0
0	6807	1.399433603884	0.80240807052
0	6841	1.407625603884	0.010823056682
0	6855	1.411821007041	0.009192
0	6914	1.425524975446	0
0	6952	1.431488752251	0.009192
0	7024	1.452516618652	0.009192
0	7048	1.457072604022	0
0	7057	1.458745971078	0
0	7133	1.471025862063	0.009192
0	7208	1.481377820878	0
0	7312	1.502455624462	0
0	7408	1.516792488836	0
0	7412	1.517143725422	0.009192
0	7423	1.518853813846	0.009192
0	7491	1.530505603884	0.892649115526
0	7521	1.538697603884	0.012971299625
0	7599	1.557988097792	0.009192
0	7649	1.566180097792	0.013006605439
0	7681	1.574372097792	0.010251307521
0	7736	1.586380480324	0.009192
0	7800	1.596041603884	0.91476963522
0	7804	1.597054518903	0
0	7828	1.604233603884	0.013504033062
0	7914	1.620559900502	0
0	7959	1.629080668044	0.009192
0	8134	1.667765166506	0.009192
0	8154	1.673854148506	0
0	8179	1.675957166506	0.010974845769
0	8314	1.701660326165	0.009192
0	8320	1.702983762565	0
0	8602	1.759881603884	1.000094376345
0	8623	1.771268994779	0
0	8652	1.775657536549	0
0	8715	1.792649603884	1.027577704062
0	8770	1.805300499826	0
0	8818	1.814870979995	0.009192
0	8856	1.823062979995	0.013346470929
0	9063	1.858185603884	1.044414872499
0	9079	1.861696914248	0.009192
0	9121	1.869888914248	0.01373159123
0	9164	1.873562964942	0
0	9167	1.875427461283	0
0	9177	1.878080914248	0.020897798632
0	9231	1.887829339184	0.009192
0	9314	1.908039849403	0.009192
0	9359	1.918836721915	0.009192
0	9406	1.923721603884	1.083742232029
0	9483	1.940921752909	0
0	9588	1.967318339448	0
0	9595	1.968610154475	0.009192
0	9615	1.96947533786	0
0	9645	1.977142591681	0
0	9780	2.006382164208	0.009192
0	9982	2.049666815072	0.009192
0	10005	2.052334351697	0
0	10048	2.062280007711	0.009192
0	10135	2.074828645589	0
0	10178	2.081742476378	0.009192
0	10205	2.084971313358	0
0	10221	2.086267827377	0.009192
0	10239	2.089934476378	0.013101419712
0	10292	2.098555837605	0.009192
0	10345	2.106971794414	0.009192
0	10368	2.112139124278	0
0	10592	2.163227437106	0.009192
0	10706	2.183117281409	0.009192
0	10727	2.185865603884	1.238537256504
0	10744	2.188022588475	0
0	10769	2.194139802021	0
0	10780	2.195458081676	0.009192
0	10821	2.201497735291	0
0	10853	2.20733846859	0.009192
0	10911	2.218633603884	1.2710308355
0	10995	2.241309897691	0.009192
0	11011	2.244357696156	0
0	11039	2.248089893439	0
0	11173	2.28278031344	0.009192
0	11210	2.291516421995	0
0	11290	2.30594818678	0
0	11307	2.308112586925	0.009192
0	11362	2.315295672084	0.009192
0	11372	2.320304842178	0.009192
0	11388	2.324025608666	0.009192
0	11404	2.328621271705	0.009192
0	11438	2.334655170678	0.009192
0	11444	2.337661408506	0
0	11579	2.368294225289	0.009192
0	11633	2.379678968568	0.009192
0	11653	2.387870968568	1.351427749789
0	11697	2.396062968568	0.021303523837
0	11718	2.404254968568	0.026716393369
0	11764	2.412446968568	0.021775529816
0	11909	2.445316970216	0
0	11925	2.448009603884	1.404039896279
0	11960	2.456201603884	0.013241029329
0	12026	2.466425308218	0.009192
0	12166	2.499657974683	0
0	12193	2.507053917792	0.009192
0	12256	2.515245917792	0.015820737016
0	12307	2.523437917792	1.39959031526
0	12342	2.527009429074	0.009192
0	12365	2.531629917792	0.01441615635
0	12376	2.534182185823	0
0	12384	2.535201429074	0.015711309926
0	12404	2.54207390748	0
0	12435	2.546313603884	1.388050727504
0	12474	2.555694733319	0
0	12530	2.563588756586	0.009192
0	12565	2.571049709857	0.009192
0	12650	2.589470473964	0
0	12660	2.59059323406	0.009192
0	12745	2.608906963861	0.009192
0	12788	2.619111061183	0
0	12821	2.625093513336	0
0	12844	2.629804702737	0.009192
0	12852	2.633218097374	0
0	12855	2.633324031536	0.009192
0	12879	2.637165095366	0
0	12965	2.654514731063	0.009192
0	13077	2.67250959166	0.009192
0	13150	2.684074599321	0.009192
0	13193	2.691392794052	0
0	13209	2.692266599321	0.016756964278
0	13228	2.699030314525	0.009192
0	13296	2.708222193893	0.009192
0	13381	2.725908905339	0
0	13462	2.742921603884	1.524634260157
0	13560	2.769052717129	0
0	13599	2.775689603884	1.556650342066
0	13643	2.787258267503	0.009192
0	13707	2.803903654768	0.009192
0	13770	2.819060246294	0.009192
0	13810	2.827252246294	0.015043429538
0	13853	2.835444246294	0.012407162778
0	14042	2.872153107014	0
0	14056	2.875783998569	0.009192
0	14195	2.902026966109	0.009192
0	14384	2.939529603884	1.640036088883
0	14491	2.962274700113	0.009192
0	14550	2.972297603884	1.667913004777
0	14785	3.032355580487	0.009192
0	14840	3.040547580487	0.017383394283
0	14878	3.048739580487	0.015156575295
0	14906	3.051099875448	0.009192
0	15026	3.070601603884	1.728851569642
0	15035	3.071858006527	0.009192
0	15060	3.078793603884	0.012316046121
0	15067	3.080050006527	0.015675554221
0	15119	3.091796394087	0
0	15145	3.095264171715	0.009192
0	15363	3.134142352591	0.009192
0	15390	3.141009529633	0.009192
0	15413	3.143440478648	0
0	15423	3.144759555672	0.009192
0	15542	3.168905603884	1.809398847379
0	15634	3.193039846661	0.009192
0	15667	3.199148886778	0.009192
0	15681	3.201231846661	0.015812365777
0	15693	3.207340886778	0.010452100085
0	15805	3.234441603884	1.867434584953
0	15937	3.260954298903	0.009192
0	15965	3.265186372245	0.009192
0	16011	3.273378372245	1.870586336056
0	16035	3.277461174935	0
0	16082	3.284580973269	0.009192
0	16136	3.299977603884	1.845151638218
0	16224	3.322419700075	0.009192
0	16280	3.332745603884	1.87453522689
0	16359	3.347163319225	0.009192
0	16459	3.367062700153	0.009192
0	16563	3.38445172852	0.009192
0	16653	3.398281603884	1.930672668191
0	16671	3.401864367006	0.009192
0	16691	3.404719554935	0
0	16719	3.410056367006	0.016504666547
0	16782	3.42075887301	0.009192
0	16861	3.431049603884	1.960722009806
0	16892	3.439241603884	0.013967775822
0	17031	3.474175413956	0
0	17091	3.487782897468	0
0	17117	3.494467585714	0
0	17140	3.496585603884	1.993371342257
0	17153	3.501973299722	0
0	17172	3.504777603884	0.015624093105
0	17219	3.513946377722	0
0	17304	3.530642593868	0.009192
0	17506	3.569319656011	0.009192
0	17509	3.570816631953	0
0	17516	3.572735803087	0.009192
0	17546	3.577511656011	0.013768255504
0	17743	3.627657603884	2.109611312227
0	17761	3.632809086856	0.009192
0	17782	3.638761920469	0
0	17822	3.644883772751	0
0	17907	3.668757608345	0.009192
0	17914	3.67032561821	0.009192
0	17974	3.680046276743	0.009192
0	18011	3.685872359162	0.009192
0	18080	3.695045781898	0.009192
0	18145	3.71118231488	0
0	18169	3.717496624317	0.009192
0	18334	3.745985493219	0.009192
0	18338	3.746385603038	0
0	18342	3.747196034596	0.009192
0	18391	3.754177493219	0.010848000423
0	18570	3.794067299027	0.009192
0	18715	3.824265603884	2.181017815475
0	18743	3.834661017886	0.009192
0	18912	3.867615353217	0.009192
0	18915	3.868040970461	0.009192
0	18921	3.869253622979	0
0	18962	3.875807353217	0.010423240758
0	18986	3.883240785199	0
0	19035	3.889801603884	2.245518434237
0	19113	3.912430692878	0
0	19132	3.916991088464	0.009192
0	19181	3.922569603884	2.268632076241
0	19184	3.923512279364	0
0	19226	3.933342754555	0.009192
0	19273	3.937294882034	0
0	19314	3.95167179931	0
0	19334	3.953115447185	0
0	19441	3.969954536748	0.009192
0	19551	3.995285733335	0.009192
0	19609	4.005735691987	0
0	19618	4.008420795269	0
0	19638	4.011153298674	0
0	19652	4.013618088408	0.009192
0	19705	4.020873603884	2.33618785369
0	19708	4.021810088408	0.009713655527
0	19744	4.028044378599	0
0	19758	4.029065603884	0.01503921223
0	19777	4.032517172446	0
0	19813	4.037257603884	0.012352662607
0	19849	4.045449603884	0.017517786742
0	19890	4.053641603884	0.025426344455
0	19893	4.054091197608	0.009192
0	19928	4.061833603884	0.024668089371
0	19934	4.065220728623	0
0	19964	4.066861568159	0.009192
0	20005	4.075021026284	0.009192
0	20063	4.083213026284	0.017334586854
0	20173	4.104037015763	0.009192
0	20254	4.117979510577	0.009192
0	20288	4.130154733318	0
0	20385	4.15629757643	0.009192
0	20439	4.166179486137	0
0	20476	4.175574370738	0
0	20516	4.184713603884	2.451137748291
0	20602	4.207173765947	0
0	20612	4.207546535296	0.009192
0	20653	4.215738535296	0.010749242053
0	20660	4.217481603884	2.445985556915
0	20693	4.226836792683	0
0	20894	4.269113170504	0.009192
0	20911	4.275170221932	0
0	20986	4.287565021517	0.009192
0	21058	4.297237404299	0.009192
0	21117	4.309983277371	0.009192
0	21163	4.316812543869	0.009192
0	21197	4.325807807467	0.009192
0	21339	4.348553603884	2.549415665553
0	21554	4.384866986369	0.009192
0	21585	4.391812404746	0.009192
0	21740	4.41557709406	0.009192
0	21780	4.423059575167	0.009192
0	21813	4.427536822874	0.009192
0	21853	4.43677203564	0
0	22084	4.485511251185	0.009192
0	22098	4.487750231874	0.009192
0	22199	4.512393603884	2.660873320432
0	22209	4.516696374874	0.009192
0	22581	4.610697603884	2.697140533446
0	22619	4.618889603884	0.013286919322
0	22672	4.627460530517	0.009192
0	22702	4.633941372226	0.009192
0	22882	4.666463713896	0.009192
0	22948	4.682019867409	0
0	22978	4.688712422125	0.009192
0	23035	4.698356672532	0
0	23118	4.709001603884	2.739761517257
0	23238	4.734617973657	0
0	23324	4.756245966802	0.009192
0	23366	4.768655632264	0.009192
0	23375	4.76879288941	0
0	23424	4.776847632264	0.017051142341
0	23495	4.790649770242	0
0	23552	4.803725271053	0.009192
0	23588	4.807305603884	2.784083788409
0	23597	4.811190485861	0
0	23746	4.839727430643	0.009192
0	23749	4.840073603884	2.814059095907
0	23843	4.862484570312	0.009192
0	23907	4.872471160721	0
0	23910	4.872841603884	2.846752132463
0	23947	4.881033603884	0.01593692739
0	23993	4.889225603884	0.011949560831
0	24022	4.897673971179	0.009192
0	24031	4.899999997572	0
0	24054	4.902589426419	0
0	24068	4.905401338811	0
0	24071	4.905865971179	0.010502804556
0	24099	4.914057971179	0.012667979177
0	24194	4.932385006622	0.009192
0	24246	4.938901601574	0.009192
0	24253	4.940577006622	2.873757411159
0	24399	4.971145603884	2.892992125819
0	24472	4.985910472318	0.009192
0	24482	4.988018023928	0.009192
0	24559	5.003913603884	2.921572532297
0	24571	5.005561184092	0.009192
0	24593	5.013753184092	0.016667054797
0	24706	5.0339549706	0.009192
0	24709	5.034561652924	0
0	24829	5.058184471242	0.009192
0	24879	5.066376471242	0.016780474707
0	24895	5.06830288771	0.009192
0	24931	5.074568471242	2.974061009096
0	25114	5.110847381153	0
0	25152	5.11569880577	0.009192
0	25256	5.134985603884	3.003217622308
0	25299	5.144349052211	0.009192
0	25343	5.151181797782	0
0	25500	5.190259000954	0.009192
0	25526	5.196499070674	0.009192
0	25576	5.204691070674	3.041641772262
0	25641	5.215546623969	0.009192
0	25679	5.223254299351	0
0	25693	5.224721130005	0
0	25763	5.235507416687	0.009192
0	25769	5.236633147079	0
0	25925	5.266917371842	0.009192
0	26006	5.28298323009	0
0	26090	5.300977550338	0
0	26099	5.304075408233	0.009192
0	26196	5.316858264528	0
0	26199	5.317010151767	0.009192
0	26213	5.320136778682	0
0	26260	5.329172304342	0.009192
0	26309	5.341060103895	0.009192
0	26402	5.364361603884	3.150831877596
0	26542	5.395289046535	0.009192
0	26551	5.395569673919	0
0	26568	5.400275759919	0
0	26714	5.442243596556	0
0	26734	5.443083652558	0.009192
0	26792	5.45435755039	0.009192
0	26845	5.462665603884	3.206775330369
0	26889	5.470857603884	0.015729334898
0	27182	5.528201603884	3.257288376309
0	27301	5.553858047994	0.009192
0	27371	5.56465846447	0.009192
0	27426	5.574084953592	0.009192
0	27630	5.617648916383	0.009192
0	27759	5.650695755431	0
0	27841	5.671285956938	0
0	27951	5.692041603884	3.270305677189
0	28013	5.708214861884	0.009192
0	28043	5.719995923764	0
0	28076	5.724809603884	3.297261604158
0	28101	5.734018781429	0.009192
0	28127	5.737993102971	0
0	28222	5.757577603884	3.316009834689
0	28253	5.765769603884	0.015905812664
0	28286	5.772504250533	0
0	28387	5.801381671511	0
0	28409	5.803330437016	0.009192
0	28454	5.816975871481	0
0	28500	5.826587161599	0
0	28541	5.83256134993	0.009192
0	28576	5.839955217064	0.009192
0	28580	5.84075334993	0.013170889532
0	28624	5.850945954338	0.009192
0	28738	5.874564882051	0.009192
0	28772	5.882756882051	0.012050768596
0	28815	5.88927481059	0
0	28852	5.89668277069	0
0	28967	5.918449514961	0.009192
0	29055	5.939694863521	0.009192
0	29148	5.964341071658	0.009192
0	29193	5.973656856674	0
0	29222	5.97969204524	0.009192
0	29279	5.990990610092	0.009192
0	29343	6.005369871428	0.009192
0	29400	6.01920933779	0.009192
0	29403	6.019721603884	3.459165873574
0	29485	6.037586477351	0.009192
0	29489	6.038374885322	0.009192
0	29530	6.045778477351	0.014773811603
0	29534	6.046566885322	0.011010617498
0	29583	6.053970477351	0.019487261461
0	29680	6.075591484075	0
0	29814	6.105689993514	0
0	29854	6.114404506063	0
0	29972	6.131647210384	0.009192
0	29975	6.132019815315	0.009192
0	30039	6.144033416441	0.009192
0	30089	6.155283662799	0.009192
0	30115	6.161455162505	0.009192
0	30125	6.16357619673	0
0	30147	6.164853711574	0
0	30166	6.169647162505	0.011745362142
0	30225	6.183561603884	3.592985748087
0	30234	6.188423874167	0.009192
0	30467	6.24927749026	0.009192
0	30533	6.262128654285	0.009192
0	30592	6.27300720894	0.009192
0	30827	6.314633603884	3.701700000416
0	30862	6.32301188402	0.009192
0	30977	6.347401603884	3.733712635807
0	30985	6.350642629678	0.009192
0	31021	6.355593603884	0.015061017361
0	31089	6.365780831517	0.009192
0	31128	6.374255990292	0.009192
0	31185	6.38574519847	0
0	31205	6.389001707348	0
0	31232	6.393318636545	0.009192
0	31331	6.411496671366	0
0	31375	6.422747743565	0
0	31527	6.456061475863	0.009192
0	31577	6.464388505999	0
0	31673	6.480330078616	0.009192
0	31712	6.491044270575	0.009192
0	31752	6.500072771669	0
0	31846	6.520735000412	0.009192
0	31906	6.533525067466	0
0	31929	6.539050211467	0
0	31973	6.544009603884	3.897255287022
0	31998	6.551578146624	0
0	32005	6.554755480954	0.009192
0	32137	6.578340616754	0.009192
0	32172	6.586532616754	0.012253441992
0	32287	6.607341324172	0.009192
0	32406	6.630043721888	0.009192
0	32477	6.642313603884	3.95263476631
0	32518	6.650922525143	0
0	32607	6.666014547586	0.009192
0	32640	6.671610068612	0
0	32733	6.692931782386	0
0	32769	6.702947598238	0
0	32805	6.707849603884	3.97765157485
0	32837	6.716041603884	0.017296696396
0	32881	6.724233603884	0.018970276908
0	32916	6.73636867724	0.009192
0	32948	6.741165955404	0
0	32963	6.745637642251	0.009192
0	33085	6.768941912938	0
0	33120	6.773272777092	0
0	33237	6.801002024812	0.009192
0	33283	6.807382280023	0.009192
0	33315	6.81479534368	0.009192
0	33372	6.825333584594	0
0	33388	6.829617848676	0.009192
0	33559	6.86851803501	0
0	33701	6.897754796811	0.009192
0	33704	6.897987578561	0.009192
0	33744	6.905946796811	0.01264614123
0	33815	6.920638074881	0.009192
0	33836	6.927104284361	0.009192
0	34031	6.972368783586	0.009192
0	34052	6.978387866065	0
0	34149	7.002761603884	4.156133077398
0	34180	7.010953603884	0.011300566295
0	34187	7.012936754681	0.009192
0	34296	7.035529603884	4.169973441299
0	34309	7.038788925121	0
0	34395	7.055429267285	0.009192
0	34413	7.059534851428	0.009192
0	34643	7.107644652528	0.009192
0	34719	7.119070596545	0.009192
0	34726	7.120773986335	0.009192
0	34817	7.140845147264	0.009192
0	34955	7.173437506614	0.009192
0	35007	7.187541526381	0
0	35089	7.208935261034	0
0	35134	7.214447774654	0.009192
0	35204	7.22949012513	0.009192
0	35238	7.235928535471	0.009192
0	35307	7.247198835455	0
0	35326	7.253593837991	0
0	35395	7.264905603884	4.325327147894
0	35424	7.273097603884	0.013773287918
0	35447	7.278639970008	0
0	35464	7.286877015968	0.009192
0	35529	7.300088825029	0
0	35626	7.313997961565	0.009192
0	35669	7.322189961565	0.014641052114
0	35672	7.322684195648	0.009192
0	35747	7.330381961565	0.011738748277
0	35968	7.377978664453	0.009192
0	36003	7.38756982259	0
0	36029	7.393237408095	0
0	36122	7.412231099952	0.009192
0	36265	7.442557982362	0.009192
0	36281	7.447368799896	0
0	36298	7.450749982362	0.009895622941
0	36351	7.460891461048	0
0	36355	7.461513603884	4.44394393615
0	36362	7.461912870147	0.009192
0	36411	7.473926521171	0
0	36520	7.49311515884	0.009192
0	36590	7.512393155388	0
0	36669	7.533365090028	0
0	36688	7.539910273006	0
0	36814	7.567442086727	0.009192
0	36921	7.588722043242	0.009192
0	36960	7.592585603884	4.51370534031
0	36973	7.595543311638	0
0	36992	7.600777603884	0.013939771285
0	37044	7.611684920054	0
0	37048	7.611782268667	0
0	37051	7.612418314065	0.009192
0	37118	7.625353603884	4.513061138709
0	37122	7.628075043044	0.009192
0	37198	7.644359361082	0.009192
0	37292	7.658121603884	4.54433098277
0	37304	7.660984706762	0
0	37419	7.683102936418	0.009192
0	37577	7.716243850862	0
0	37636	7.723657603884	4.587790036184
0	37672	7.732761246112	0.009192
0	37748	7.747134429913	0.009192
0	37830	7.769675275143	0
0	37913	7.789193603884	4.539900708158
0	37947	7.799293816431	0.009192
0	37980	7.802704054202	0
0	37999	7.804268909386	0
0	38003	7.809790835382	0.009192
0	38008	7.810746254504	0
0	38031	7.816211087596	0
0	38072	7.821285120319	0.009192
0	38090	7.829493786758	0.009192
0	38155	7.849910896587	0
0	38252	7.868018999516	0
0	38440	7.898297539659	0
0	38485	7.906128998669	0.009192
0	38495	7.90918454836	0
0	38586	7.92455371373	0.009192
0	38594	7.925852397603	0.009192
0	38628	7.93274571373	0.016110850727
0	38646	7.934044397603	0.011741833674
0	38662	7.937676365922	0
0	38669	7.94093771373	0.018488988003
0	38721	7.95167317442	0.009192
0	38752	7.95986517442	4.604880785782
0	38789	7.965980879419	0
0	38811	7.97241349006	0
0	38918	7.993442540387	0.009192
0	38921	7.993552242494	0.009192
0	38956	8.000504166009	0
0	38960	8.001634540387	0.010207634755
0	39028	8.018569603884	4.647709465696
0	39039	8.023701886697	0
0	39061	8.030181533456	0
0	39216	8.056378417812	0.009192
0	39281	8.066962719044	0
0	39313	8.073967257567	0.009192
0	39362	8.082159257567	0.013474748595
0	39461	8.112353453286	0.009192
0	39502	8.118903346144	0
0	39531	8.123249254424	0.009192
0	39589	8.135949066153	0
0	39658	8.147523767064	0
0	39680	8.149093081008	0.009192
0	39846	8.182409603884	4.757154252844
0	39920	8.196056101461	0.009192
0	40031	8.219586521308	0.009192
0	40060	8.227778521308	0.015196542284
0	40167	8.247143034156	0.009192
0	40196	8.255335034156	4.795444539981
0	40263	8.268004290301	0
0	40352	8.284311554239	0
0	40421	8.296484017179	0.009192
0	40472	8.305744851464	0
0	40701	8.353870221786	0.009192
0	40737	8.361301125566	0
0	40774	8.372264412272	0
0	40999	8.421465525301	0
0	41014	8.422398764335	0.009192
0	41124	8.444553603884	4.924541985511
0	41188	8.458146550336	0
0	41251	8.471023748981	0.009192
0	41289	8.477521887339	0
0	41296	8.47819168152	0.009192
0	41305	8.479215748981	0.015871039237
0	41315	8.482916941417	0
0	41339	8.486341177479	0
0	41342	8.48638368152	0.012866807435
0	41346	8.487407748981	4.943978012122
0	41383	8.49457568152	0.013177325498
0	41397	8.49954980521	0.009192
0	41414	8.50276768152	0.010356396332
0	41466	8.51095968152	0.009701529098
0	41498	8.51915168152	0.013466774806
0	41563	8.533403692648	0
0	41615	8.542857603884	4.950396003585
0	41706	8.560374991178	0.009192
0	41726	8.565091983821	0
0	41741	8.566685583212	0.009192
0	41748	8.568566991178	0.010292334967
0	41799	8.579561746329	0.009192
0	41824	8.586545325686	0
0	41871	8.597036186882	0.009192
0	41956	8.616636793993	0.009192
0	42001	8.625080428961	0
0	42085	8.641102196106	0
0	42088	8.641414493656	0.009192
0	42141	8.652268570508	0
0	42225	8.667227795882	0.009192
0	42303	8.678173324216	0.009192
0	42386	8.694330563619	0.009192
0	42566	8.725634670892	0.009192
0	42629	8.73668126077	0.009192
0	42651	8.742614608093	0.009192
0	42655	8.744100987649	0
0	42809	8.780834130503	0
0	42830	8.786016791588	0.009192
0	42845	8.788900280255	0
0	42851	8.791062413826	0
0	42902	8.803124351493	0
0	42906	8.805001603884	5.150324332241
0	42968	8.820939393799	0.009192
0	43002	8.829131393799	0.011508649013
0	43134	8.855722781495	0
0	43197	8.868244147088	0
0	43233	8.877828328701	0
0	43362	8.909487639579	0.009192
0	43388	8.91450829972	0
0	43430	8.922102591682	0.009192
0	43490	8.93345267692	0
0	43510	8.936073603884	5.219343173341
0	43514	8.93780512701	0.009192
0	43621	8.958947596864	0.009192
0	43760	8.984510742505	0
0	43796	8.994278369159	0.009192
0	43849	9.000799262156	0
0	43853	9.001609603884	5.253933592046
0	43856	9.002470369159	0.013387003207
0	43900	9.013755239266	0.009192
0	44170	9.06618202963	0.009192
0	44201	9.07437402963	5.305195331618
0	44215	9.078776497628	0.009192
0	44245	9.08256602963	0.020046154448
0	44276	9.090741223658	0.009192
0	44321	9.099913603884	5.315113084498
0	44484	9.132681603884	5.340032015443
0	44555	9.152093894416	0.009192
0	44588	9.160285894416	0.010985576287
0	44632	9.164466433053	0.009192
0	44660	9.172658433053	0.014337604422
0	44690	9.179316646691	0.009192
0	44774	9.195155672623	0.009192
0	44830	9.207227286218	0.009192
0	44885	9.217421537033	0.009192
0	44903	9.222234288093	0.009192
0	44955	9.230985603884	5.424756160076
0	44976	9.236686516781	0.009192
0	44996	9.238633655625	0
0	44999	9.239177603884	0.012914711099
0	45002	9.239877189405	0
0	45116	9.263753603884	5.434970734665
0	45175	9.277622804424	0.009192
0	45192	9.281623726958	0.009192
0	45300	9.305264185447	0.009192
0	45402	9.323406596995	0.009192
0	45458	9.333999992805	0
0	45488	9.339836127454	0
0	45522	9.345588806665	0
0	45575	9.35577429998	0.009192
0	45636	9.36396629998	0.01343914064
0	45671	9.37215829998	0.016769950688
0	45674	9.372169835363	0
0	45772	9.394825603884	5.530553193645
0	45925	9.422835989364	0
0	46000	9.436891958758	0.009192
0	46128	9.461083090329	0.009192
0	46131	9.461599285654	0
0	46205	9.482239568336	0
0	46275	9.50239687564	0
0	46399	9.523087955026	0.009192
0	46443	9.533330086747	0.009192
0	46502	9.54919210349	0
0	46734	9.602124294932	0.009192
0	46779	9.610512873975	0.009192
0	46878	9.63261759869	0.009192
0	46908	9.638299764552	0.009192
0	46933	9.646491764552	0.012447149537
0	46994	9.657069507926	0
0	47014	9.660091421664	0.009192
0	47037	9.668283421664	0.017225749089
0	47100	9.678086196038	0.009192
0	47122	9.682866417433	0
0	47180	9.695799348604	0
0	47207	9.700517795571	0.009192
0	47252	9.704734857169	0
0	47265	9.708709795571	0.009568111393
0	47299	9.716901795571	0.014650643752
0	47343	9.725029587823	0
0	47346	9.725093795571	0.019212632557
0	47407	9.744579476636	0
0	47450	9.752852194198	0
0	47535	9.774240472705	0.009192
0	47542	9.777503695865	0
0	47637	9.793963343961	0
0	47667	9.795532572943	0.009192
0	47670	9.796351065767	0
0	47749	9.808797866572	0
0	47833	9.826179903895	0.009192
0	47890	9.836600686874	0.009192
0	47902	9.839405704456	0
0	47986	9.853577603884	5.770364252358
0	48031	9.861769603884	0.013738499624
0	48034	9.86277036476	0
0	48077	9.869961603884	0.013991473103
0	48080	9.870313713818	0
0	48138	9.884115820476	0.009192
0	48159	9.891307333146	0.009192
0	48230	9.902787144818	0.009192
0	48263	9.910979144818	0.010050409083
0	48266	9.911568725229	0.009192
0	48306	9.918720334489	0
0	48312	9.919171144818	0.013865115002
0	48339	9.926088772691	0.009192
0	48347	9.927363144818	5.818280417138
0	48380	9.932963429272	0
0	48396	9.935555144818	0.023114008888
0	48608	9.982486042669	0
0	48767	10.009574520017	0.009192
0	48826	10.017766520017	0.014886014177
0	48837	10.022031185708	0.009192
0	48858	10.027473107919	0
0	48894	10.034409592534	0.009192
0	48966	10.05089307682	0
0	49000	10.058352371392	0
0	49046	10.064984233617	0.009192
0	49121	10.082953603884	5.866903604796
0	49286	10.126618577127	0.009192
0	49330	10.134810577127	0.011025338275
0	49393	10.146981603741	0.009192
0	49675	10.208227008157	0.009192
0	49716	10.213433285447	0
0	49729	10.216419008157	0.014099438999
0	49848	10.238875440557	0.009192
0	49901	10.24716986427	0.009192
0	50063	10.276193489396	0.009192
0	50094	10.280763591227	0.009192
0	50108	10.284385489396	5.998043231739
0	50225	10.312329603884	6.023518319081
0	50262	10.322488377416	0.009192
0	50283	10.326071509399	0.009192
0	50411	10.353138489447	0
0	50426	10.355874683908	0
0	50460	10.359506506601	0.009192
0	50545	10.376197587405	0.009192
0	50549	10.37799389613	0.009192
0	50727	10.410633603884	6.050142016196
0	50772	10.420940790153	0.009192
0	50809	10.429132790153	0.009843134473
0	50839	10.43343888495	0
0	50860	10.438901169865	0.009192
0	50888	10.441225453754	0.009192
0	51056	10.476169603884	6.107381962315
0	51107	10.487334702406	0
0	51149	10.491148815298	0
0	51157	10.493629816958	0.009192
0	51210	10.501821816958	0.012712677372
0	51260	10.510013816958	0.010910393873
0	51303	10.519754431386	0.009192
0	51411	10.537219966475	0.009192
0	51446	10.541169360454	0
0	51460	10.545418232452	0.009192
0	51472	10.547905353844	0.009192
0	51536	10.562540838571	0.009192
0	51600	10.574473603884	6.17479513069
0	51612	10.578266653092	0.009192
0	51804	10.625259805975	0.009192
0	51808	10.626911462924	0.009192
0	51840	10.633451805975	0.017118537573
0	51883	10.641643805975	0.011078516272
0	51890	10.644326937735	0.009192
0	51974	10.659956789026	0.009192
0	52034	10.669699449183	0.009192
0	52055	10.675260280987	0.009192
0	52072	10.677891449183	6.265092589105
0	52189	10.699990727501	0.009192
0	52213	10.702131650106	0
0	52239	10.708182727501	0.016860549336
0	52304	10.71930354985	0
0	52406	10.738313603884	6.3064955892
0	52412	10.738884030452	0.009192
0	52630	10.784969982823	0.009192
0	52720	10.801682067566	0.009192
0	52753	10.809874067566	6.360968104288
0	52919	10.836029840737	0.009192
0	53013	10.853160097948	0
0	53126	10.880980957035	0.009192
0	53257	10.902153603884	6.401335942494
0	53280	10.910345603884	0.01240205761
0	53318	10.916253320277	0
0	53334	10.921906209787	0
0	53407	10.934867829262	0.009192
0	53466	10.947630235238	0
0	53567	10.966369496444	0.009192
0	53593	10.974561496444	6.427129509607
0	53713	11.006427586104	0.009192
0	53839	11.030043518858	0
0	53876	11.039327251147	0.009192
0	53899	11.045067233917	0
0	53923	11.047519251147	0.01015251145
0	53935	11.047697564159	0
0	54027	11.06479169452	0.009192
0	54063	11.072931696418	0
0	54071	11.075700322622	0.009192
0	54115	11.080438311633	0.009192
0	54128	11.085338346191	0.009192
0	54132	11.087798250926	0
0	54143	11.088861597157	0
0	54149	11.089119658554	0
0	54191	11.098761603884	6.458220727915